<?xml version="1.0" encoding="UTF-8"?>

<!-- generated on 2021/7/11 16:40:53 by Eclipse SUMO GUI Version 1.9.0
<configuration xmlns:xsi="http://www.w3.org/2001/XMLSchema-instance" xsi:noNamespaceSchemaLocation="http://sumo.dlr.de/xsd/sumoConfiguration.xsd">

    <input>
        <net-file value="D:\graduate1\SUMMER\Calibration\data\datachange\dodraw\simu\N6.net.xml"/>
        <additional-files value="D:\graduate1\SUMMER\Calibration\data\datachange\dodraw\simu\vtype.xml,D:\graduate1\SUMMER\Calibration\data\datachange\dodraw\simu\0902route.xml,D:\graduate1\SUMMER\Calibration\data\datachange\dodraw\simu\11mycalibrator0902.xml,D:\graduate1\SUMMER\Calibration\data\datachange\dodraw\simu\New810-820.add.xml"/>
    </input>

    <time>
        <begin value="0"/>
        <end value="4200"/>
        <step-length value="1"/>
    </time>

    <processing>
        <collision.action value="warn"/>
        <collision.mingap-factor value="0"/>
        <time-to-teleport value="60"/>
        <random-depart-offset value="0"/>
        <emergencydecel.warning-threshold value="1"/>
    </processing>

    <random_number>
        <random value="false"/>
    </random_number>

    <gui_only>
        <quit-on-end value="false"/>
        <start value="false"/>
        <tracker-interval value="1"/>
    </gui_only>

</configuration>
-->

<detector xmlns:xsi="http://www.w3.org/2001/XMLSchema-instance" xsi:noNamespaceSchemaLocation="http://sumo.dlr.de/xsd/det_e1_file.xsd">
</detector>
